REMARK SMILES Cc1ccc(NC(=O)c2ccc(CN3CCN(C)CC3)cc2)cc1Nc1nccc(-c2cccnc2)n1
REMARK SMILES IDX 6 1 7 2 8 3 5 5 2 6 3 7 24 8 4 9 23 10 1 11 25 12 26 14
REMARK SMILES IDX 27 15 37 16 28 17 30 18 29 19 31 20 32 21 36 22 33 23 35 24
REMARK SMILES IDX 34 25 9 26 10 27 22 28 11 29 21 30 12 31 13 32 14 33 15 34
REMARK SMILES IDX 20 35 16 36 19 37 17 38 18 39
REMARK H PARENT 6 4 25 13
ROOT
ATOM      1  N   UNL     1      -0.054  -1.338   2.242  1.00  0.00    -0.322 N 
ATOM      2  C   UNL     1       1.024  -1.680   3.034  1.00  0.00    +0.255 C 
ATOM      3  O   UNL     1       1.015  -1.974   4.222  1.00  0.00    -0.269 OA
ATOM      4  H   UNL     1       0.152  -0.997   1.312  1.00  0.00    +0.170 HD
ENDROOT
BRANCH   1   5
ATOM      5  C   UNL     1      -1.416  -1.315   2.609  1.00  0.00    +0.043 A 
ATOM      6  C   UNL     1      -4.175  -1.209   3.158  1.00  0.00    -0.027 A 
ATOM      7  C   UNL     1      -3.264  -1.696   4.110  1.00  0.00    +0.008 A 
ATOM      8  C   UNL     1      -3.708  -0.766   1.899  1.00  0.00    +0.046 A 
ATOM      9  C   UNL     1      -1.896  -1.750   3.838  1.00  0.00    +0.026 A 
ATOM     10  C   UNL     1      -2.326  -0.830   1.656  1.00  0.00    +0.052 A 
ATOM     11  C   UNL     1      -5.635  -1.167   3.525  1.00  0.00    +0.046 C 
BRANCH   8  12
ATOM     12  N   UNL     1      -4.613  -0.257   0.956  1.00  0.00    -0.324 N 
ATOM     13  H   UNL     1      -5.595  -0.328   1.174  1.00  0.00    +0.170 HD
BRANCH  12  14
ATOM     14  C   UNL     1      -4.493   0.317  -0.307  1.00  0.00    +0.227 A 
ATOM     15  N   UNL     1      -3.305   0.545  -0.881  1.00  0.00    -0.221 NA
ATOM     16  N   UNL     1      -5.660   0.630  -0.893  1.00  0.00    -0.213 NA
ATOM     17  C   UNL     1      -3.306   1.115  -2.096  1.00  0.00    +0.117 A 
ATOM     18  C   UNL     1      -5.639   1.192  -2.125  1.00  0.00    +0.077 A 
ATOM     19  C   UNL     1      -4.450   1.461  -2.770  1.00  0.00    +0.049 A 
BRANCH  18  20
ATOM     20  C   UNL     1      -6.959   1.500  -2.704  1.00  0.00    +0.019 A 
ATOM     21  C   UNL     1      -8.069   1.793  -1.897  1.00  0.00    +0.013 A 
ATOM     22  C   UNL     1      -7.198   1.513  -4.080  1.00  0.00    +0.121 A 
ATOM     23  C   UNL     1      -9.309   2.087  -2.464  1.00  0.00    +0.021 A 
ATOM     24  N   UNL     1      -8.387   1.802  -4.667  1.00  0.00    -0.264 NA
ATOM     25  C   UNL     1      -9.416   2.083  -3.842  1.00  0.00    +0.111 A 
ENDBRANCH  18  20
ENDBRANCH  12  14
ENDBRANCH   8  12
ENDBRANCH   1   5
BRANCH   2  26
ATOM     26  C   UNL     1       2.332  -1.634   2.330  1.00  0.00    +0.040 A 
ATOM     27  C   UNL     1       3.422  -1.041   2.973  1.00  0.00    +0.014 A 
ATOM     28  C   UNL     1       2.488  -2.195   1.058  1.00  0.00    +0.014 A 
ATOM     29  C   UNL     1       4.660  -0.979   2.330  1.00  0.00    +0.006 A 
ATOM     30  C   UNL     1       3.732  -2.141   0.423  1.00  0.00    +0.006 A 
ATOM     31  C   UNL     1       4.828  -1.522   1.045  1.00  0.00    -0.034 A 
BRANCH  31  32
ATOM     32  C   UNL     1       6.178  -1.461   0.359  1.00  0.00    +0.120 C 
BRANCH  32  33
ATOM     33  N   UNL     1       6.381  -0.383  -0.609  1.00  0.00    -0.297 NA
ATOM     34  C   UNL     1       6.364   0.972  -0.041  1.00  0.00    +0.100 C 
ATOM     35  C   UNL     1       5.574  -0.467  -1.826  1.00  0.00    +0.100 C 
ATOM     36  C   UNL     1       6.224   2.101  -1.100  1.00  0.00    +0.099 C 
ATOM     37  C   UNL     1       6.052   0.525  -2.922  1.00  0.00    +0.099 C 
ATOM     38  N   UNL     1       6.698   1.773  -2.456  1.00  0.00    -0.304 NA
ATOM     39  C   UNL     1       8.156   1.647  -2.480  1.00  0.00    +0.105 C 
ENDBRANCH  32  33
ENDBRANCH  31  32
ENDBRANCH   2  26
TORSDOF 7
