REMARK SMILES CS(=O)(=O)CCNCc1ccc(-c2ccc3ncnc(Nc4ccc(OCc5cccc(F)c5)c(Cl)c4)c3c2)o1
REMARK SMILES IDX 13 1 14 2 15 3 16 4 17 5 18 6 19 7 20 8 38 9 39 10 12 11
REMARK SMILES IDX 9 12 10 13 40 14 11 15 8 16 7 17 6 19 5 20 2 21 3 22 4 23
REMARK SMILES IDX 1 24 21 25 22 27 23 28 37 29 24 30 35 31 25 32 36 33 26 34
REMARK SMILES IDX 27 35 28 36 29 37 34 38 30 39 32 40 31 41 33 42
REMARK H PARENT 7 18 21 26
ROOT
ATOM      1  C   UNL     1       2.326  -0.670   0.963  1.00  0.00    +0.018 A 
ATOM      2  C   UNL     1       2.904  -1.121   2.152  1.00  0.00    +0.014 A 
ATOM      3  C   UNL     1       2.128  -1.299   3.304  1.00  0.00    +0.030 A 
ATOM      4  C   UNL     1       0.767  -1.032   3.319  1.00  0.00    +0.076 A 
ATOM      5  N   UNL     1       0.090  -1.237   4.452  1.00  0.00    -0.236 NA
ATOM      6  C   UNL     1      -1.221  -0.977   4.422  1.00  0.00    +0.224 A 
ATOM      7  N   UNL     1      -1.912  -0.523   3.373  1.00  0.00    -0.219 NA
ATOM      8  C   UNL     1      -1.219  -0.302   2.240  1.00  0.00    +0.141 A 
ATOM      9  C   UNL     1       0.164  -0.561   2.147  1.00  0.00    +0.044 A 
ATOM     10  C   UNL     1       0.953  -0.393   0.974  1.00  0.00    +0.026 A 
ENDROOT
BRANCH   1  11
ATOM     11  C   UNL     1       3.117  -0.500  -0.253  1.00  0.00    +0.134 A 
ATOM     12  C   UNL     1       5.022  -0.526  -1.362  1.00  0.00    +0.118 A 
ATOM     13  C   UNL     1       4.052  -0.168  -2.271  1.00  0.00    +0.047 A 
ATOM     14  O   UNL     1       4.461  -0.723  -0.135  1.00  0.00    -0.460 OA
ATOM     15  C   UNL     1       2.827  -0.154  -1.559  1.00  0.00    +0.051 A 
BRANCH  12  16
ATOM     16  C   UNL     1       6.494  -0.722  -1.453  1.00  0.00    +0.157 C 
BRANCH  16  17
ATOM     17  N   UNL     1       7.188   0.497  -1.020  1.00  0.00    -0.309 NA
ATOM     18  H   UNL     1       6.798   0.747  -0.108  1.00  0.00    +0.123 HD
BRANCH  17  19
ATOM     19  C   UNL     1       8.635   0.296  -0.875  1.00  0.00    +0.097 C 
BRANCH  19  20
ATOM     20  C   UNL     1       9.351   0.145  -2.209  1.00  0.00    +0.152 C 
BRANCH  20  21
ATOM     21  S   UNL     1      11.124   0.078  -2.014  1.00  0.00    +0.148 S 
ATOM     22  O   UNL     1      11.430  -0.805  -0.906  1.00  0.00    -0.229 OA
ATOM     23  O   UNL     1      11.692  -0.167  -3.326  1.00  0.00    -0.229 OA
ATOM     24  C   UNL     1      11.580   1.731  -1.544  1.00  0.00    +0.158 C 
ENDBRANCH  20  21
ENDBRANCH  19  20
ENDBRANCH  17  19
ENDBRANCH  16  17
ENDBRANCH  12  16
ENDBRANCH   1  11
BRANCH   8  25
ATOM     25  N   UNL     1      -1.894   0.230   1.107  1.00  0.00    -0.340 N 
ATOM     26  H   UNL     1      -1.422   1.085   0.826  1.00  0.00    +0.168 HD
BRANCH  25  27
ATOM     27  C   UNL     1      -3.285   0.299   0.871  1.00  0.00    +0.041 A 
ATOM     28  C   UNL     1      -4.183  -0.647   1.374  1.00  0.00    +0.030 A 
ATOM     29  C   UNL     1      -3.783   1.269  -0.007  1.00  0.00    +0.050 A 
ATOM     30  C   UNL     1      -5.549  -0.601   1.061  1.00  0.00    +0.050 A 
ATOM     31  C   UNL     1      -5.147   1.322  -0.321  1.00  0.00    +0.085 A 
ATOM     32  C   UNL     1      -6.046   0.387   0.210  1.00  0.00    +0.138 A 
ATOM     33 Cl   UNL     1      -5.678   2.572  -1.395  1.00  0.00    -0.080 Cl
BRANCH  32  34
ATOM     34  O   UNL     1      -7.359   0.514  -0.155  1.00  0.00    -0.487 OA
BRANCH  34  35
ATOM     35  C   UNL     1      -8.274  -0.484   0.290  1.00  0.00    +0.265 C 
BRANCH  35  36
ATOM     36  C   UNL     1      -9.644  -0.160  -0.257  1.00  0.00    -0.008 A 
ATOM     37  C   UNL     1     -10.245   1.081   0.017  1.00  0.00    +0.007 A 
ATOM     38  C   UNL     1     -10.349  -1.095  -1.026  1.00  0.00    +0.046 A 
ATOM     39  C   UNL     1     -11.520   1.381  -0.470  1.00  0.00    +0.003 A 
ATOM     40  C   UNL     1     -11.618  -0.786  -1.505  1.00  0.00    +0.123 A 
ATOM     41  C   UNL     1     -12.210   0.442  -1.234  1.00  0.00    +0.039 A 
ATOM     42  F   UNL     1     -12.282  -1.690  -2.238  1.00  0.00    -0.207 F 
ENDBRANCH  35  36
ENDBRANCH  34  35
ENDBRANCH  32  34
ENDBRANCH  25  27
ENDBRANCH   8  25
TORSDOF 11
