REMARK SMILES C#Cc1cccc(Nc2ncnc3cc(OCCOC)c(OCCOC)cc23)c1
REMARK SMILES IDX 15 1 14 2 13 3 12 4 11 5 10 6 9 7 28 8 27 9 21 10 16 11
REMARK SMILES IDX 17 12 18 13 19 14 20 15 22 16 23 17 24 18 25 19 26 20 8 21
REMARK SMILES IDX 7 23 6 24 29 25 5 26 3 27 4 28 2 29 1 30
REMARK H PARENT 8 22
ROOT
ATOM      1  C   UNL     1      -2.312   0.310   0.628  1.00  0.00    +0.163 A 
ATOM      2  C   UNL     1      -1.974   0.983   1.806  1.00  0.00    +0.079 A 
ATOM      3  C   UNL     1      -0.871   0.621   2.572  1.00  0.00    +0.080 A 
ATOM      4  N   UNL     1      -0.600   1.327   3.673  1.00  0.00    -0.236 NA
ATOM      5  C   UNL     1       0.470   0.954   4.385  1.00  0.00    +0.224 A 
ATOM      6  N   UNL     1       1.294  -0.055   4.098  1.00  0.00    -0.219 NA
ATOM      7  C   UNL     1       1.013  -0.761   2.990  1.00  0.00    +0.141 A 
ATOM      8  C   UNL     1      -0.089  -0.467   2.165  1.00  0.00    +0.047 A 
ATOM      9  C   UNL     1      -0.437  -1.169   0.986  1.00  0.00    +0.064 A 
ATOM     10  C   UNL     1      -1.522  -0.765   0.211  1.00  0.00    +0.162 A 
ENDROOT
BRANCH   1  11
ATOM     11  O   UNL     1      -3.383   0.611  -0.173  1.00  0.00    -0.487 OA
BRANCH  11  12
ATOM     12  C   UNL     1      -3.955   1.918  -0.086  1.00  0.00    +0.258 C 
BRANCH  12  13
ATOM     13  C   UNL     1      -3.084   2.979  -0.764  1.00  0.00    +0.201 C 
BRANCH  13  14
ATOM     14  O   UNL     1      -3.714   4.257  -0.623  1.00  0.00    -0.381 OA
ATOM     15  C   UNL     1      -2.953   5.286  -1.247  1.00  0.00    +0.195 C 
ENDBRANCH  13  14
ENDBRANCH  12  13
ENDBRANCH  11  12
ENDBRANCH   1  11
BRANCH  10  16
ATOM     16  O   UNL     1      -1.878  -1.403  -0.947  1.00  0.00    -0.487 OA
BRANCH  16  17
ATOM     17  C   UNL     1      -0.810  -1.672  -1.869  1.00  0.00    +0.258 C 
BRANCH  17  18
ATOM     18  C   UNL     1      -0.097  -0.412  -2.390  1.00  0.00    +0.201 C 
BRANCH  18  19
ATOM     19  O   UNL     1      -0.963   0.594  -2.928  1.00  0.00    -0.381 OA
ATOM     20  C   UNL     1      -1.702   0.172  -4.063  1.00  0.00    +0.195 C 
ENDBRANCH  18  19
ENDBRANCH  17  18
ENDBRANCH  16  17
ENDBRANCH  10  16
BRANCH   7  21
ATOM     21  N   UNL     1       1.895  -1.826   2.682  1.00  0.00    -0.340 N 
ATOM     22  H   UNL     1       1.369  -2.694   2.674  1.00  0.00    +0.168 HD
BRANCH  21  23
ATOM     23  C   UNL     1       2.832  -1.799   1.619  1.00  0.00    +0.041 A 
ATOM     24  C   UNL     1       3.374  -0.597   1.137  1.00  0.00    +0.026 A 
ATOM     25  C   UNL     1       3.320  -3.007   1.100  1.00  0.00    +0.043 A 
ATOM     26  C   UNL     1       4.325  -0.599   0.114  1.00  0.00    +0.003 A 
ATOM     27  C   UNL     1       4.271  -3.012   0.073  1.00  0.00    +0.026 A 
ATOM     28  C   UNL     1       4.768  -1.806  -0.424  1.00  0.00    +0.017 A 
ATOM     29  C   UNL     1       4.737  -4.254  -0.464  1.00  0.00    -0.070 C 
ATOM     30  C   UNL     1       5.128  -5.298  -0.913  1.00  0.00    +0.010 C 
ENDBRANCH  21  23
ENDBRANCH   7  21
TORSDOF 10
