REMARK SMILES CCOc1cc2ncc(C#N)c(Nc3ccc(OCc4ccccn4)c(Cl)c3)c2cc1NC(=O)/C=C/CN(C)C
REMARK SMILES IDX 4 1 5 2 6 3 7 4 8 5 9 6 10 7 11 8 12 9 29 10 30 11 31 12
REMARK SMILES IDX 3 13 2 14 1 15 32 16 33 17 34 18 35 20 36 21 37 22 38 23
REMARK SMILES IDX 39 24 40 25 13 26 14 28 15 29 28 30 16 31 26 32 17 33 27 34
REMARK SMILES IDX 18 35 19 36 20 37 21 38 25 39 22 40 24 41 23 42
REMARK H PARENT 32 19 13 27
ROOT
ATOM      1  C   UNL     1      -2.377   3.398  -1.300  1.00  0.00    +0.144 A 
ATOM      2  C   UNL     1      -1.515   4.486  -1.144  1.00  0.00    +0.077 A 
ATOM      3  C   UNL     1      -0.451   4.453  -0.253  1.00  0.00    +0.076 A 
ATOM      4  N   UNL     1       0.324   5.544  -0.153  1.00  0.00    -0.255 NA
ATOM      5  C   UNL     1       1.355   5.522   0.722  1.00  0.00    +0.133 A 
ATOM      6  C   UNL     1       1.671   4.438   1.519  1.00  0.00    +0.094 A 
ATOM      7  C   UNL     1       2.785   4.526   2.409  1.00  0.00    +0.103 C 
ATOM      8  N   UNL     1       3.678   4.607   3.147  1.00  0.00    -0.192 NA
ATOM      9  C   UNL     1       0.874   3.291   1.414  1.00  0.00    +0.068 A 
ATOM     10  C   UNL     1      -0.225   3.289   0.511  1.00  0.00    +0.027 A 
ATOM     11  C   UNL     1      -1.103   2.190   0.357  1.00  0.00    +0.042 A 
ATOM     12  C   UNL     1      -2.178   2.240  -0.531  1.00  0.00    +0.084 A 
ENDROOT
BRANCH   1  13
ATOM     13  O   UNL     1      -3.455   3.363  -2.153  1.00  0.00    -0.492 OA
BRANCH  13  14
ATOM     14  C   UNL     1      -3.621   4.462  -3.048  1.00  0.00    +0.226 C 
ATOM     15  C   UNL     1      -4.802   4.148  -3.949  1.00  0.00    +0.049 C 
ENDBRANCH  13  14
ENDBRANCH   1  13
BRANCH  12  16
ATOM     16  N   UNL     1      -3.098   1.183  -0.713  1.00  0.00    -0.319 N 
ATOM     17  C   UNL     1      -3.171  -0.006  -0.028  1.00  0.00    +0.248 C 
ATOM     18  O   UNL     1      -2.448  -0.378   0.886  1.00  0.00    -0.270 OA
ATOM     19  H   UNL     1      -3.808   1.385  -1.409  1.00  0.00    +0.170 HD
BRANCH  17  20
ATOM     20  C   UNL     1      -4.309  -0.841  -0.503  1.00  0.00    +0.068 C 
ATOM     21  C   UNL     1      -4.791  -1.831   0.268  1.00  0.00    -0.006 C 
BRANCH  21  22
ATOM     22  C   UNL     1      -5.949  -2.706  -0.111  1.00  0.00    +0.111 C 
BRANCH  22  23
ATOM     23  N   UNL     1      -5.577  -4.126  -0.177  1.00  0.00    -0.306 NA
ATOM     24  C   UNL     1      -6.589  -4.878  -0.923  1.00  0.00    +0.105 C 
ATOM     25  C   UNL     1      -5.431  -4.708   1.164  1.00  0.00    +0.105 C 
ENDBRANCH  22  23
ENDBRANCH  21  22
ENDBRANCH  17  20
ENDBRANCH  12  16
BRANCH   9  26
ATOM     26  N   UNL     1       1.172   2.118   2.168  1.00  0.00    -0.354 N 
ATOM     27  H   UNL     1       1.283   2.327   3.162  1.00  0.00    +0.167 HD
BRANCH  26  28
ATOM     28  C   UNL     1       2.105   1.119   1.779  1.00  0.00    +0.040 A 
ATOM     29  C   UNL     1       2.537   0.968   0.454  1.00  0.00    +0.030 A 
ATOM     30  C   UNL     1       2.512   0.168   2.726  1.00  0.00    +0.050 A 
ATOM     31  C   UNL     1       3.414  -0.061   0.096  1.00  0.00    +0.050 A 
ATOM     32  C   UNL     1       3.388  -0.862   2.372  1.00  0.00    +0.085 A 
ATOM     33  C   UNL     1       3.862  -0.961   1.062  1.00  0.00    +0.138 A 
ATOM     34 Cl   UNL     1       3.874  -1.988   3.588  1.00  0.00    -0.080 Cl
BRANCH  33  35
ATOM     35  O   UNL     1       4.696  -1.991   0.712  1.00  0.00    -0.486 OA
BRANCH  35  36
ATOM     36  C   UNL     1       5.997  -1.510   0.347  1.00  0.00    +0.285 C 
BRANCH  36  37
ATOM     37  C   UNL     1       6.998  -2.639   0.206  1.00  0.00    +0.078 A 
ATOM     38  C   UNL     1       6.595  -3.953  -0.028  1.00  0.00    +0.027 A 
ATOM     39  N   UNL     1       8.311  -2.286   0.248  1.00  0.00    -0.258 NA
ATOM     40  C   UNL     1       7.564  -4.936  -0.209  1.00  0.00    +0.004 A 
ATOM     41  C   UNL     1       9.228  -3.262   0.073  1.00  0.00    +0.111 A 
ATOM     42  C   UNL     1       8.907  -4.588  -0.163  1.00  0.00    +0.020 A 
ENDBRANCH  36  37
ENDBRANCH  35  36
ENDBRANCH  33  35
ENDBRANCH  26  28
ENDBRANCH   9  26
TORSDOF 11
