REMARK SMILES COc1cc(N2CCC(N3CCN(C)CC3)CC2)ccc1Nc1ncc(Cl)c(Nc2ccccc2P(C)(C)=O)n1
REMARK SMILES IDX 23 1 24 2 25 3 26 4 27 5 28 6 40 7 22 8 21 10 3 11 4 12 5 13
REMARK SMILES IDX 20 14 19 15 2 16 1 17 6 18 7 19 18 20 8 21 17 22 9 23 10 24
REMARK SMILES IDX 11 25 16 26 12 27 15 28 13 29 14 30 29 31 30 33 31 34 35 35
REMARK SMILES IDX 32 36 34 37 33 38 36 39 39 40 37 41 38 42
REMARK H PARENT 22 9 29 32
ROOT
ATOM      1  C   UNL     1      -3.502   0.519  -1.166  1.00  0.00    +0.229 A 
ATOM      2  N   UNL     1      -3.334  -0.606  -1.872  1.00  0.00    -0.220 NA
ATOM      3  C   UNL     1      -4.427  -1.120  -2.473  1.00  0.00    +0.139 A 
ATOM      4  C   UNL     1      -5.681  -0.558  -2.412  1.00  0.00    +0.102 A 
ATOM      5 Cl   UNL     1      -6.962  -1.263  -3.315  1.00  0.00    -0.079 Cl
ATOM      6  C   UNL     1      -5.774   0.589  -1.640  1.00  0.00    +0.154 A 
ATOM      7  N   UNL     1      -4.691   1.138  -1.041  1.00  0.00    -0.194 NA
ENDROOT
BRANCH   1   8
ATOM      8  N   UNL     1      -2.441   1.154  -0.538  1.00  0.00    -0.321 N 
ATOM      9  H   UNL     1      -2.728   2.032  -0.129  1.00  0.00    +0.170 HD
BRANCH   8  10
ATOM     10  C   UNL     1      -1.069   0.889  -0.408  1.00  0.00    +0.084 A 
ATOM     11  C   UNL     1      -0.244   1.879   0.165  1.00  0.00    +0.144 A 
ATOM     12  C   UNL     1       1.133   1.659   0.315  1.00  0.00    +0.074 A 
ATOM     13  C   UNL     1       1.743   0.461  -0.098  1.00  0.00    +0.040 A 
ATOM     14  C   UNL     1      -0.468  -0.295  -0.831  1.00  0.00    +0.032 A 
ATOM     15  C   UNL     1       0.911  -0.502  -0.681  1.00  0.00    +0.028 A 
BRANCH  11  16
ATOM     16  O   UNL     1      -0.899   3.029   0.555  1.00  0.00    -0.494 OA
ATOM     17  C   UNL     1      -0.088   4.148   0.886  1.00  0.00    +0.278 C 
ENDBRANCH  11  16
BRANCH  13  18
ATOM     18  N   UNL     1       3.127   0.281   0.065  1.00  0.00    -0.371 N 
ATOM     19  C   UNL     1       3.789  -0.811  -0.652  1.00  0.00    +0.118 C 
ATOM     20  C   UNL     1       3.622   0.564   1.427  1.00  0.00    +0.118 C 
ATOM     21  C   UNL     1       5.292  -0.551  -0.769  1.00  0.00    +0.040 C 
ATOM     22  C   UNL     1       4.982  -0.081   1.696  1.00  0.00    +0.040 C 
ATOM     23  C   UNL     1       5.900   0.111   0.483  1.00  0.00    +0.060 C 
BRANCH  23  24
ATOM     24  N   UNL     1       7.302  -0.252   0.767  1.00  0.00    -0.298 NA
ATOM     25  C   UNL     1       7.507  -1.627   1.255  1.00  0.00    +0.100 C 
ATOM     26  C   UNL     1       8.247   0.106  -0.307  1.00  0.00    +0.100 C 
ATOM     27  C   UNL     1       8.989  -2.056   1.177  1.00  0.00    +0.099 C 
ATOM     28  C   UNL     1       8.864  -1.093  -1.064  1.00  0.00    +0.099 C 
ATOM     29  N   UNL     1       9.491  -2.120  -0.209  1.00  0.00    -0.304 NA
ATOM     30  C   UNL     1      10.948  -2.031  -0.230  1.00  0.00    +0.105 C 
ENDBRANCH  23  24
ENDBRANCH  13  18
ENDBRANCH   8  10
ENDBRANCH   1   8
BRANCH   6  31
ATOM     31  N   UNL     1      -6.950   1.333  -1.447  1.00  0.00    -0.338 N 
ATOM     32  H   UNL     1      -6.721   2.103  -0.825  1.00  0.00    +0.168 HD
BRANCH  31  33
ATOM     33  C   UNL     1      -8.276   0.886  -1.287  1.00  0.00    +0.050 A 
ATOM     34  C   UNL     1      -9.239   1.542  -2.079  1.00  0.00    +0.027 A 
ATOM     35  C   UNL     1      -8.700  -0.049  -0.323  1.00  0.00    +0.035 A 
ATOM     36  C   UNL     1     -10.592   1.224  -1.997  1.00  0.00    +0.002 A 
ATOM     37  C   UNL     1     -10.073  -0.369  -0.271  1.00  0.00    +0.014 A 
ATOM     38  C   UNL     1     -11.008   0.254  -1.099  1.00  0.00    +0.001 A 
BRANCH  35  39
ATOM     39  P   UNL     1      -7.597  -0.819   0.842  1.00  0.00    +0.111 P 
ATOM     40  O   UNL     1      -6.547  -1.739   0.272  1.00  0.00    -0.319 OA
ATOM     41  C   UNL     1      -8.522  -1.739   2.095  1.00  0.00    +0.087 C 
ATOM     42  C   UNL     1      -6.843   0.452   1.873  1.00  0.00    +0.087 C 
ENDBRANCH  35  39
ENDBRANCH  31  33
ENDBRANCH   6  31
TORSDOF 8
