REMARK SMILES C=CC(=O)N1CCN(c2nc(=O)n(-c3c(C)ccnc3C(C)C)c3nc(-c4c(O)cccc4F)c(F)cc23)[C@H](C)C1
REMARK SMILES IDX 9 1 10 2 11 3 12 4 13 5 24 6 25 7 26 8 35 9 36 10 37 11
REMARK SMILES IDX 38 12 8 13 5 14 41 15 6 16 39 17 7 18 40 19 3 20 4 21 2 22
REMARK SMILES IDX 1 23 14 24 15 25 20 26 17 27 19 28 18 29 16 30 21 31 22 32
REMARK SMILES IDX 23 33 27 34 28 35 33 36 30 37 32 38 31 39 34 40 29 41
REMARK H PARENT 29 42
ROOT
ATOM      1  C   UNL     1       1.132  -0.857   0.344  1.00  0.00    +0.145 C 
ATOM      2  N   UNL     1       0.616  -1.971   0.764  1.00  0.00    -0.175 NA
ATOM      3  C   UNL     1      -0.739  -2.192   0.779  1.00  0.00    +0.355 C 
ATOM      4  O   UNL     1      -1.167  -3.299   1.103  1.00  0.00    -0.245 OA
ATOM      5  N   UNL     1      -1.591  -1.154   0.424  1.00  0.00    -0.242 N 
ATOM      6  C   UNL     1      -1.096   0.072  -0.064  1.00  0.00    +0.153 A 
ATOM      7  N   UNL     1      -1.962   1.039  -0.469  1.00  0.00    -0.226 NA
ATOM      8  C   UNL     1      -1.457   2.232  -0.882  1.00  0.00    +0.115 A 
ATOM      9  C   UNL     1      -0.093   2.497  -0.877  1.00  0.00    +0.150 A 
ATOM     10  F   UNL     1       0.391   3.689  -1.255  1.00  0.00    -0.205 F 
ATOM     11  C   UNL     1       0.788   1.509  -0.465  1.00  0.00    +0.057 A 
ATOM     12  C   UNL     1       0.275   0.269  -0.083  1.00  0.00    +0.064 A 
ENDROOT
BRANCH   1  13
ATOM     13  N   UNL     1       2.521  -0.716   0.301  1.00  0.00    -0.350 N 
ATOM     14  N   UNL     1       5.415  -0.876   0.133  1.00  0.00    -0.335 N 
ATOM     15  C   UNL     1       4.635  -0.261  -0.944  1.00  0.00    +0.144 C 
ATOM     16  C   UNL     1       4.735  -0.889   1.437  1.00  0.00    +0.141 C 
ATOM     17  C   UNL     1       3.187  -0.791  -1.035  1.00  0.00    +0.100 C 
ATOM     18  C   UNL     1       3.295  -1.416   1.357  1.00  0.00    +0.140 C 
ATOM     19  C   UNL     1       3.147  -2.207  -1.620  1.00  0.00    +0.033 C 
BRANCH  14  20
ATOM     20  C   UNL     1       6.796  -0.833  -0.007  1.00  0.00    +0.246 C 
ATOM     21  O   UNL     1       7.356  -0.359  -0.993  1.00  0.00    -0.270 OA
BRANCH  20  22
ATOM     22  C   UNL     1       7.601  -1.430   1.092  1.00  0.00    +0.063 C 
ATOM     23  C   UNL     1       8.852  -1.009   1.319  1.00  0.00    +0.014 C 
ENDBRANCH  20  22
ENDBRANCH  14  20
ENDBRANCH   1  13
BRANCH   5  24
ATOM     24  C   UNL     1      -2.989  -1.377   0.320  1.00  0.00    +0.077 A 
ATOM     25  C   UNL     1      -3.516  -1.878  -0.895  1.00  0.00    -0.023 A 
ATOM     26  C   UNL     1      -3.873  -1.139   1.392  1.00  0.00    +0.067 A 
ATOM     27  C   UNL     1      -4.892  -2.099  -0.995  1.00  0.00    +0.025 A 
ATOM     28  N   UNL     1      -5.215  -1.364   1.271  1.00  0.00    -0.259 NA
ATOM     29  C   UNL     1      -5.687  -1.830   0.100  1.00  0.00    +0.112 A 
ATOM     30  C   UNL     1      -2.647  -2.172  -2.088  1.00  0.00    +0.047 C 
BRANCH  26  31
ATOM     31  C   UNL     1      -3.492  -0.623   2.769  1.00  0.00    +0.034 C 
ATOM     32  C   UNL     1      -2.569  -1.553   3.556  1.00  0.00    +0.014 C 
ATOM     33  C   UNL     1      -2.973   0.815   2.771  1.00  0.00    +0.014 C 
ENDBRANCH  26  31
ENDBRANCH   5  24
BRANCH   8  34
ATOM     34  C   UNL     1      -2.438   3.216  -1.327  1.00  0.00    +0.081 A 
ATOM     35  C   UNL     1      -2.670   3.472  -2.687  1.00  0.00    +0.128 A 
ATOM     36  C   UNL     1      -3.186   3.941  -0.393  1.00  0.00    +0.136 A 
ATOM     37  C   UNL     1      -3.620   4.412  -3.098  1.00  0.00    +0.047 A 
ATOM     38  C   UNL     1      -4.137   4.881  -0.789  1.00  0.00    +0.040 A 
ATOM     39  C   UNL     1      -4.356   5.115  -2.145  1.00  0.00    +0.007 A 
ATOM     40  F   UNL     1      -2.983   3.760   0.921  1.00  0.00    -0.206 F 
BRANCH  35  41
ATOM     41  O   UNL     1      -1.948   2.785  -3.629  1.00  0.00    -0.507 OA
ATOM     42  H   UNL     1      -2.255   3.044  -4.514  1.00  0.00    +0.293 HD
ENDBRANCH  35  41
ENDBRANCH   8  34
TORSDOF 7
